415
Atoms. Timestep: 0
O 11.0951 5.69404 9.71746
O 10.0823 4.92658 7.89456
N 11.0181 6.90272 6.36613
C 11.5073 6.94531 7.7607
C 10.9774 8.25543 8.45427
C 10.3992 9.08921 7.32827
C 10.01 8.00304 6.26491
C 10.801 5.74127 8.45409
H 12.5725 6.86084 7.67368
H 11.7776 8.89401 9.03287
H 10.1926 7.92234 9.19099
H 9.52865 9.70165 7.70693
H 11.1991 9.69656 6.8793
H 9.0342 7.59169 6.48723
H 9.87462 8.33022 5.22865
H 11.752 7.25954 5.76677
H 10.5706 5.19199 10.3589
C 13.5834 8.46173 4.19824
O 13.3471 8.97468 5.27524
C 14.9319 7.99387 3.85964
H 15.0704 7.14029 3.1572
H 15.4571 8.91519 3.50375
H 15.3901 7.74025 4.80992
C 12.4953 8.42282 3.11388
H 11.5937 8.16611 3.5775
H 12.504 9.42547 2.66026
H 12.7475 7.70323 2.35903
C 10.9699 12.1873 14.9518
C 9.73356 12.9282 15.0542
C 9.59686 14.17 14.4593
C 10.7436 14.6352 13.7547
C 11.9696 13.9453 13.6821
C 12.0465 12.6716 14.325
H 8.98746 12.5175 15.6793
H 8.60566 14.5284 14.3768
H 12.8441 14.373 13.3004
H 12.9999 12.1756 14.2106
C 10.908 10.7624 15.4136
O 9.85812 10.1689 15.5288
H 11.8992 10.2785 15.5987
N 10.5594 15.8004 12.872
O 11.5049 0.228656 12.2155
O 9.49879 0.323862 12.9096
C 6.33567 1.17312 14.8571
C 6.05989 0.520931 0.0842844
C 6.09481 1.20331 1.30404
C 6.38567 2.5975 1.31743
C 6.68469 3.21487 0.0764356
C 6.59818 2.52888 14.8226
H 5.9352 15.4079 15.8907
H 5.9034 0.766856 2.30253
H 6.89969 4.26395 0.14766
H 6.88385 2.83848 13.8008
C 6.18482 0.273315 13.6077
O 6.38398 0.731561 12.5065
H 5.76319 15.2078 13.6819
N 6.21529 3.46125 2.45514
O 6.03637 4.63956 2.29075
O 6.19808 2.86188 3.51721
C 14.7642 0.694813 13.7994
C 14.2731 1.55611 12.8766
C 14.4949 1.40952 11.5024
C 15.2603 0.381878 11.0709
C 15.6409 15.3165 12.043
C 15.5093 15.5258 13.3781
H 13.5148 2.29796 13.174
H 14.1607 2.21947 10.815
H 0.333181 14.4541 11.6576
H 15.7024 14.7408 14.0481
C 14.6173 0.770784 15.2595
O 14.7645 15.7751 0.0666601
H 14.0824 1.64139 15.6845
N 15.5004 0.168203 9.64438
O 14.8865 0.85201 8.85866
O 0.295427 15.1973 9.36021
C 6.77185 6.30693 10.8671
O 6.73122 7.49289 10.8166
C 6.80285 5.60045 12.2211
H 7.84257 5.51991 12.5982
H 6.20152 6.29269 12.8384
H 6.29901 4.62131 12.0805
C 6.87018 5.34871 9.65373
H 5.98989 4.72045 9.62821
H 6.86426 5.89179 8.71883
H 7.83543 4.73294 9.68112
C 5.33385 12.7405 0.0558909
O 4.97802 13.4025 15.0381
C 5.8192 11.3399 15.8071
H 4.95884 10.7203 15.5852
H 6.4872 11.2597 14.9073
H 6.40528 10.8064 0.659618
C 5.28007 13.3244 1.45038
H 4.68371 12.708 2.1212
H 6.2593 13.3854 1.86654
H 4.90144 14.3576 1.25979
C 12.8475 15.8992 5.14232
O 12.3413 14.9527 4.53207
C 12.5638 0.369257 6.55953
H 12.4037 15.475 7.22127
H 13.3317 0.937169 7.0588
H 11.6637 0.962873 6.43663
C 13.5845 1.07308 4.42101
H 14.4342 0.615454 3.85605
H 13.0022 1.59834 3.66597
H 14.0213 1.83019 5.08436
C 9.43638 15.4744 1.96211
O 8.57443 15.0586 1.19996
C 9.44652 14.9661 3.45349
H 9.38102 15.811 4.14865
H 8.64208 14.2432 3.58597
H 10.3709 14.4588 3.6563
C 10.5338 0.482333 1.76102
H 10.0988 1.38374 2.20403
H 11.4095 0.193501 2.32459
H 10.8149 0.671628 0.740654
C 14.57 5.16773 7.40673
O 14.9958 6.13182 7.98152
C 14.0589 3.78272 8.10602
H 13.8824 3.01503 7.38532
H 14.7581 3.3559 8.83841
H 13.0839 3.95353 8.55679
C 14.4832 4.97218 5.91815
H 14.5696 5.93007 5.38269
H 15.1863 4.2454 5.58072
H 13.4875 4.54078 5.69611
C 4.37808 0.362763 8.98533
O 4.73064 0.986735 7.96938
C 3.67272 15.0086 8.93148
H 2.62 15.1039 9.12392
H 3.604 14.4348 8.02442
H 4.10613 14.4379 9.7493
C 4.50885 0.976161 10.3669
H 4.81281 2.05241 10.2663
H 3.62207 0.862014 10.8729
H 5.23287 0.394924 10.8619
C 2.70816 0.183834 0.533967
O 3.73352 0.232791 1.18642
C 1.56017 1.05423 0.923679
H 1.10097 0.76361 1.84759
H 2.05397 1.99931 1.16972
H 0.858533 1.15051 0.113392
C 2.4494 15.1572 15.3109
H 3.27316 15.2575 14.5411
H 2.31325 14.1897 15.733
H 1.46566 15.4038 14.9329
C 6.69942 15.3759 6.45638
O 6.56737 14.4057 7.1672
C 7.64162 0.483614 6.80775
H 8.52858 0.0357671 7.25112
H 7.88873 1.12285 5.94949
H 7.15854 1.13051 7.61367
C 6.05315 15.4574 5.08509
H 5.64252 14.4821 4.69574
H 5.29515 0.273599 5.06206
H 6.8015 15.7887 4.32677
C 3.50687 6.73691 1.42428
O 3.19437 5.61328 1.19824
C 2.9414 7.53414 2.57964
H 2.34145 6.95099 3.29756
H 3.8314 8.06529 3.04478
H 2.2485 8.24345 2.16932
C 4.3518 7.44541 0.40567
H 5.3773 7.07751 0.725517
H 4.24013 6.97341 15.4131
H 4.37521 8.57462 0.245003
C 3.50124 12.0566 11.2626
O 4.41037 11.2515 11.273
C 2.39149 11.9507 10.1956
H 2.10771 10.9022 10.1991
H 1.47183 12.5224 10.5708
H 2.71508 12.2381 9.21141
C 3.47047 13.2581 12.1281
H 2.45481 13.4724 12.4138
H 4.15671 13.081 13.0102
H 3.86626 14.1154 11.6029
C 10.8329 9.13063 12.4708
O 11.8348 8.69202 12.9071
C 9.70116 8.2142 12.1407
H 9.50342 8.07892 11.0964
H 9.89835 7.2285 12.563
H 8.74609 8.68603 12.491
C 10.6516 10.5765 12.1203
H 10.001 11.048 12.8194
H 11.6417 10.9649 12.2052
H 10.3323 10.6919 11.0954
C 15.0828 6.29976 11.7958
O 14.9744 6.02959 12.9799
C 0.359608 6.11615 10.9708
H 0.193797 5.33771 10.2298
H 0.455764 7.04326 10.3517
H 1.25825 5.83829 11.4431
C 13.8784 6.71837 11.0218
H 14.0839 6.87943 9.9927
H 12.9935 6.09723 11.1371
H 13.4243 7.5941 11.3816
C 8.08687 8.78335 3.24187
O 8.30714 7.67156 2.90089
C 9.0981 9.93652 3.18831
H 8.89069 10.5488 2.31779
H 8.8772 10.6001 4.01397
H 10.1693 9.63524 3.13134
C 6.72486 9.23355 3.58564
H 6.11104 8.31827 3.70066
H 6.80035 9.77985 4.50746
H 6.32993 9.84203 2.77359
C 13.2322 13.446 9.66653
O 13.359 13.1229 8.49436
C 12.2303 14.5073 10.1554
H 12.9 15.1616 10.7317
H 11.7316 15.107 9.3594
H 11.496 14.0744 10.8353
C 13.8819 12.649 10.7944
H 14.159 11.6315 10.6434
H 14.8595 13.1179 10.9791
H 13.2555 12.6586 11.634
C 0.644999 11.4493 13.6786
O 0.260872 12.4871 13.1778
C 1.66281 11.4414 14.8436
H 2.59184 11.1875 14.3119
H 1.77283 12.4838 15.2565
H 1.64041 10.7296 15.682
C 0.177454 10.1532 13.1045
H 0.390506 10.1437 12.0502
H 0.731387 9.32294 13.6022
H 15.061 10.1295 13.2334
C 2.73106 2.92254 13.8165
O 2.92444 1.74675 14.0134
C 1.55937 3.38237 12.9964
H 0.792273 2.58784 12.9146
H 0.944959 4.22344 13.2086
H 1.8659 3.59889 11.9702
C 3.64713 3.98304 14.2771
H 4.24142 3.78205 15.1534
H 4.35641 4.28389 13.4938
H 3.16379 4.95675 14.5386
C 9.63552 2.77235 10.4442
O 9.32024 3.8473 10.9991
C 8.71361 1.60552 10.371
H 9.09071 0.742046 9.87867
H 8.43716 1.40764 11.3956
H 7.80061 1.82795 9.75333
C 10.9938 2.47737 9.83372
H 11.0002 2.70679 8.77845
H 11.7944 3.08187 10.24
H 11.4313 1.45225 10.0073
C 9.74207 3.68854 4.04845
O 9.35238 2.55278 4.21454
C 9.3697 4.53342 2.84952
H 8.82059 3.96972 2.09
H 8.7651 5.44159 3.13389
H 10.2865 4.80664 2.4259
C 10.877 4.294 4.80997
H 11.8062 4.34379 4.20585
H 10.5902 5.16199 5.26543
H 11.0314 3.66234 5.65939
C 15.3435 10.5997 8.35313
O 15.9432 11.0765 9.31877
C 15.5189 11.1523 6.94032
H 14.7097 10.7477 6.262
H 15.1823 12.1766 7.0817
H 0.560577 11.1288 6.4803
C 14.335 9.49278 8.59792
H 13.6733 9.63449 9.44408
H 13.7326 9.27039 7.68992
H 14.9979 8.64324 8.71142
C 13.1283 13.0794 2.19414
O 11.993 13.1786 1.78134
C 14.0973 14.2295 2.46479
H 14.8973 14.2271 1.72637
H 13.52 15.1523 2.28953
H 14.4529 14.1442 3.48402
C 13.5336 11.6747 2.57528
H 13.8648 11.1165 1.6889
H 14.2547 11.8298 3.34168
H 12.7119 11.1589 2.94122
C 2.09314 7.82099 6.73654
O 1.75111 8.05678 5.59355
C 2.89395 8.82883 7.56758
H 3.73066 8.24711 7.98331
H 3.1505 9.67396 6.95863
H 2.204 9.17828 8.40351
C 1.87178 6.46984 7.31746
H 1.53794 6.59686 8.35966
H 1.12763 5.87424 6.74067
H 2.87652 6.10478 7.32514
C 2.0087 2.65197 8.81578
O 1.24914 2.89615 9.71413
C 1.74542 1.84028 7.60364
H 2.03891 0.828829 7.79649
H 0.70122 1.97343 7.41842
H 2.27534 2.16903 6.76508
C 3.29629 3.48582 8.81943
H 3.99365 3.15973 8.0975
H 2.98498 4.51026 8.637
H 3.72575 3.49002 9.78703
C 6.1712 10.3743 7.2662
O 6.2798 9.48184 6.50733
C 5.73924 11.7499 6.86229
H 4.9619 11.7044 6.07551
H 5.40919 12.3564 7.75432
H 6.66928 12.1469 6.56955
C 6.52658 10.1428 8.73677
H 6.35184 9.11557 8.99868
H 7.51523 10.5557 9.01377
H 5.75509 10.7615 9.21896
C 3.5664 7.83897 12.4104
O 3.09399 6.86721 12.9594
C 4.48249 8.88884 12.9161
H 4.3033 9.10913 13.9665
H 5.54569 8.6503 12.7619
H 4.26573 9.70437 12.3053
C 3.36959 8.02539 10.875
H 2.44013 8.50025 10.6514
H 4.15842 8.66801 10.4154
H 3.35589 7.08469 10.3046
C 9.9483 12.1524 6.18136
O 8.95718 11.6294 5.75988
C 9.9538 12.6928 7.59813
H 10.4058 13.6525 7.74163
H 8.94784 12.612 8.01592
H 10.5175 11.9926 8.22982
C 11.2084 12.2174 5.35285
H 10.9895 12.5319 4.28541
H 11.8826 12.9645 5.80172
H 11.7069 11.2389 5.32427
C 15.3006 8.31216 15.7436
O 15.7049 9.39313 0.179272
C 0.306921 7.08711 15.6163
H 1.32083 7.24613 15.9126
H 15.8053 6.28375 0.314467
H 0.26305 6.71152 14.6031
C 13.8856 8.03661 15.2189
H 13.6036 8.85481 14.5434
H 13.7726 7.11575 14.6191
H 13.2921 8.24805 0.159162
C 11.3005 3.53915 14.115
O 12.25 3.07427 14.6719
C 9.93598 2.87127 14.2412
H 9.3704 3.06178 13.3733
H 10.13 1.82476 14.4776
H 9.4018 3.28908 15.0988
C 11.4099 4.72378 13.2277
H 12.3436 5.2723 13.4762
H 11.3392 4.47513 12.1944
H 10.6152 5.34034 13.5243
C 2.513 10.8354 2.42121
O 3.18658 10.8297 1.44258
C 1.04684 11.1714 2.34966
H 0.530018 10.2086 2.25272
H 0.720548 11.6189 3.26749
H 0.739153 11.7342 1.4612
C 3.03295 10.7291 3.87745
H 2.47825 9.97745 4.40725
H 4.07823 10.4571 3.80558
H 2.8835 11.6916 4.32359
C 14.0287 4.423 2.21143
O 13.5107 5.20924 2.92249
C 15.1705 3.47389 2.68413
H 15.1133 3.35011 3.76695
H 15.14 2.54226 2.15987
H 0.208312 3.94834 2.47498
C 13.4749 4.32025 0.811463
H 12.5283 3.8495 0.884686
H 13.2498 5.33063 0.497667
H 14.0844 3.78051 0.154559
C 1.10867 13.9802 5.50435
O 0.818884 13.2937 4.53856
C 2.50704 14.5973 5.41019
H 2.92482 14.8024 4.35852
H 2.55148 15.4765 5.96923
H 3.24361 13.9607 5.85883
C 0.0722314 14.4192 6.47326
H 0.202286 13.9704 7.47806
H 0.217307 15.4153 6.73434
H 15.024 14.0837 6.13505
C 9.12001 6.69036 15.5967
O 9.1535 5.62473 14.9781
C 7.95939 7.6266 15.6572
H 8.00139 8.07361 0.71613
H 8.13156 8.39898 14.9186
H 7.03119 7.10568 15.4847
C 10.3077 7.16337 0.395163
H 10.7154 8.08634 15.8365
H 9.88194 7.51456 1.34721
H 11.0312 6.44192 0.601168
C 2.26604 2.90633 4.35803
O 1.14457 2.67375 4.6998
C 2.79815 4.25448 4.01541
H 2.05721 5.02479 4.16598
H 3.55465 4.29661 4.84345
H 3.306 4.3029 3.08129
C 3.227 1.75797 4.24351
H 3.16683 1.23405 3.29866
H 4.26021 2.24596 4.34257
H 2.96444 1.03546 4.96341
C 8.07166 13.1609 11.4155
O 9.29717 13.2223 11.4984
C 7.28801 14.0069 10.4419
H 6.19328 13.9215 10.5067
H 7.59224 15.0149 10.4403
H 7.55572 13.634 9.43862
C 7.29523 12.4292 12.4281
H 6.54781 13.0202 12.9462
H 6.75571 11.6154 11.9242
H 7.9856 12.0034 13.164
C 5.89896 4.90185 6.22094
O 4.73649 4.59904 6.34821
C 7.01132 3.84635 6.42544
H 7.17862 3.50853 7.43151
H 6.72327 3.02079 5.74095
H 7.9883 4.17412 6.03689
C 6.3726 6.28691 5.86005
H 7.08171 6.30419 4.94058
H 5.57719 6.96502 5.55652
H 6.91677 6.64724 6.75957
415
Atoms. Timestep: 1000
O 10.6276 5.19346 9.89522
O 9.10077 4.85059 8.34209
N 10.201 6.93026 6.78511
C 10.678 6.70805 8.16559
C 10.5688 7.95367 9.03195
C 10.0086 9.04617 7.98769
C 9.33683 8.16982 6.90686
C 10.011 5.48959 8.75115
H 11.7185 6.36992 8.18278
H 11.394 8.30751 9.48092
H 9.87199 7.72226 9.89648
H 9.31683 9.66327 8.47497
H 10.7828 9.58785 7.50558
H 8.28986 7.83262 7.19525
H 9.22647 8.71525 5.92797
H 10.9633 7.31589 6.22739
H 10.297 4.30831 10.1982
C 12.695 8.06163 4.18574
O 12.4274 8.42371 5.32304
C 14.1775 8.08691 3.60828
H 14.8074 8.50477 4.33848
H 14.4837 7.02874 3.41146
H 14.162 8.62545 2.6482
C 11.7096 7.70727 3.12267
H 12.1035 8.16563 2.19641
H 11.7269 6.65748 2.93598
H 10.6879 7.95785 3.37513
C 11.5526 11.6046 15.1696
C 10.2818 12.1729 15.5138
C 9.92208 13.4493 15.2261
C 10.8845 14.1878 14.4443
C 12.0708 13.6147 13.9397
C 12.4152 12.3496 14.3054
H 9.59201 11.5752 0.151977
H 9.03129 13.8686 15.6487
H 12.7825 14.191 13.434
H 13.3218 11.8312 14.0356
C 11.9356 10.229 15.563
O 11.2284 9.48823 0.302476
H 12.9124 9.88264 15.2472
N 10.4998 15.5189 13.9648
O 11.2302 0.29727 13.2481
O 9.23603 15.8401 14.1954
C 6.09548 1.39262 14.3373
C 6.70385 0.892155 15.5392
C 6.75266 1.71845 0.715221
C 6.25409 3.06497 0.628328
C 5.69304 3.51829 15.4391
C 5.59048 2.67461 14.319
H 7.0833 15.8923 15.5835
H 7.13866 1.33923 1.68888
H 5.31485 4.56656 15.3743
H 5.13823 2.98965 13.4122
C 6.26193 0.582653 13.0895
O 5.6715 0.838449 12.0535
H 6.95412 15.656 13.1409
N 6.54557 3.95262 1.73867
O 6.30824 5.16849 1.72169
O 7.06495 3.38426 2.76428
C 14.5506 1.20999 14.142
C 14.0208 2.05662 13.1574
C 14.397 1.91228 11.8501
C 15.3098 0.849627 11.6204
C 0.00648464 0.00567979 12.5502
C 15.5526 0.204707 13.8386
H 13.2417 2.74399 13.5722
H 13.9172 2.5053 11.0615
H 0.641092 15.1874 12.2734
H 15.9272 15.5189 14.5526
C 13.8403 1.05364 15.4783
O 14.3672 0.441297 0.43832
H 12.8576 1.51573 15.6575
N 15.6587 0.533191 10.2137
O 15.1999 1.27495 9.3477
O 0.366125 15.4971 9.9425
C 7.16461 6.66422 10.7643
O 7.65791 7.69373 11.1406
C 7.09584 5.44815 11.7891
H 7.82749 4.719 11.501
H 7.24795 5.86611 12.7801
H 6.1865 4.83466 11.6552
C 6.45354 6.42576 9.42975
H 5.46546 5.89542 9.56204
H 6.30666 7.33191 8.93413
H 7.12415 5.72262 8.91915
C 5.83333 13.3936 0.110146
O 5.24972 13.9527 15.1119
C 6.51698 12.0954 15.8279
H 7.15721 11.8014 0.754582
H 5.7168 11.3348 15.7111
H 7.12025 12.163 14.9599
C 5.84235 13.943 1.52803
H 6.75463 13.6991 2.1249
H 5.57025 14.9792 1.46939
H 4.988 13.4202 1.97569
C 13.8015 15.4906 4.93685
O 12.8002 14.8148 5.03985
C 14.1269 0.623677 6.00877
H 14.4189 1.53363 5.48407
H 13.3604 0.710027 6.79811
H 15.075 0.258945 6.44938
C 14.6913 15.2551 3.7146
H 14.1288 15.2058 2.82858
H 15.5761 15.897 3.58216
H 15.0692 14.2444 3.82932
C 9.98177 15.3277 2.13736
O 9.00521 15.2333 1.41557
C 10.0948 14.6122 3.46141
H 10.9065 13.8501 3.37944
H 10.376 15.331 4.26272
H 9.17895 14.1234 3.68058
C 11.2458 0.138466 1.67248
H 11.7189 0.661629 2.53558
H 11.9339 15.2867 1.31097
H 11.0986 0.837093 0.882699
C 13.8397 4.94901 7.24346
O 14.4375 5.6949 7.99755
C 13.2623 3.68427 7.80567
H 12.8147 3.00436 7.05919
H 14.1121 3.07658 8.21599
H 12.5477 3.95992 8.65599
C 13.8182 5.33122 5.85978
H 13.0217 4.9563 5.1895
H 14.0701 6.35718 5.68161
H 14.6552 4.71938 5.43083
C 3.94682 1.03001 9.44108
O 4.99687 1.56801 9.10938
C 3.55382 15.814 8.57696
H 3.57847 0.383277 7.64076
H 4.21473 14.946 8.55065
H 2.51586 15.4445 8.54665
C 3.19529 1.58081 10.6984
H 2.95726 2.6274 10.5016
H 2.21029 1.20643 10.9166
H 3.7858 1.57685 11.5584
C 2.9929 0.108019 1.54662
O 3.51773 0.391101 2.59669
C 2.92959 1.19664 0.469225
H 1.95115 1.10723 15.9184
H 3.21254 2.18841 0.764581
H 3.66949 0.885877 15.6808
C 2.29189 14.6999 1.21635
H 1.40035 14.9302 0.581321
H 2.9598 14.1568 0.527102
H 2.00773 14.2413 2.1947
C 7.12652 0.274565 5.67225
O 7.31597 15.4573 6.62569
C 8.18585 1.30373 5.3938
H 8.9476 0.854981 4.76984
H 7.83586 2.09404 4.78542
H 8.601 1.73548 6.33056
C 5.91243 0.056791 4.71751
H 5.8131 14.9436 4.60133
H 5.04604 0.5072 5.17217
H 6.01401 0.513829 3.73654
C 3.24492 6.43314 1.05971
O 2.64085 5.89986 0.133646
C 3.14086 5.98477 2.51471
H 2.24438 6.36566 2.8801
H 3.09321 4.88059 2.52041
H 3.99842 6.34723 3.12591
C 4.12711 7.6258 0.736006
H 3.35384 8.41383 0.734751
H 4.84699 7.79597 1.53728
H 4.54281 7.56389 15.7385
C 3.53466 13.0142 11.0002
O 4.56311 12.3678 10.9871
C 2.34192 12.7327 10.1463
H 2.56244 11.8193 9.55958
H 1.43688 12.5538 10.726
H 2.24651 13.5941 9.54499
C 3.5322 14.2663 11.9101
H 2.60931 14.5601 12.414
H 4.2413 14.1387 12.745
H 3.84582 15.1291 11.3923
C 11.4081 9.35367 12.3639
O 12.5097 9.67541 11.9307
C 11.2509 8.04035 13.0062
H 12.1684 7.91752 13.5687
H 10.4029 7.93682 13.6886
H 11.3111 7.24956 12.2252
C 10.1292 10.1579 12.0797
H 9.37905 9.53782 11.6823
H 9.78893 10.5363 13.0484
H 10.2232 10.931 11.3651
C 14.4251 5.65297 12.3126
O 14.8012 4.90749 13.1964
C 14.843 7.08971 12.2395
H 15.0392 7.54563 13.2472
H 15.8289 7.15633 11.7005
H 14.1089 7.81176 11.7777
C 13.5393 5.10936 11.1551
H 14.2608 4.76279 10.3479
H 13.0088 4.31715 11.6032
H 12.869 5.96307 10.8463
C 7.65973 9.06265 3.4428
O 8.07007 7.97941 3.86533
C 8.59579 10.1664 3.00247
H 9.08862 10.6509 3.91977
H 9.31754 9.65696 2.34441
H 8.01548 10.9164 2.42954
C 6.15212 9.24171 3.38154
H 5.80654 10.2586 3.0957
H 5.7256 8.33058 2.8847
H 5.81039 9.20146 4.45327
C 13.5964 12.5396 9.60019
O 13.4838 11.5049 8.89296
C 12.8394 13.7958 9.15236
H 13.1883 14.0698 8.1556
H 11.8176 13.6013 8.94907
H 12.8869 14.5657 9.9226
C 14.6594 12.5676 10.6991
H 15.2128 11.6185 10.6165
H 15.3112 13.4248 10.7467
H 14.0672 12.5708 11.6601
C 0.895188 11.781 13.4395
O 0.0516917 12.6167 13.5688
C 2.29858 11.99 14.0371
H 2.3507 12.8779 14.5672
H 2.34652 11.1372 14.7425
H 3.09877 11.87 13.3144
C 0.589533 10.466 12.7685
H 15.5215 10.072 12.9179
H 0.820673 10.5815 11.6708
H 1.34261 9.67877 13.1188
C 2.72534 4.42598 12.6958
O 3.6347 4.15598 11.9176
C 1.90129 3.37294 13.297
H 1.62292 3.50729 14.3056
H 0.887487 3.34137 12.8731
H 2.4666 2.45529 13.346
C 2.27261 5.91772 12.979
H 2.67499 6.44441 13.8831
H 2.50496 6.55472 12.1609
H 1.21743 5.83744 13.0297
C 9.78221 1.74043 10.1192
O 10.7899 2.45237 10.1212
C 8.37413 2.21692 9.98954
H 7.61255 1.73378 10.6721
H 8.34921 3.34113 10.0716
H 7.9415 1.95357 8.96905
C 9.9703 0.281564 10.1733
H 9.52209 15.9026 11.1311
H 9.4173 15.6686 9.40955
H 10.983 15.884 10.4157
C 10.6432 3.36763 4.22101
O 11.5271 2.64694 4.64487
C 10.3703 3.5092 2.74492
H 9.31085 3.45921 2.47516
H 10.8208 4.46221 2.32282
H 10.8633 2.76911 2.08008
C 9.97659 4.32796 5.14691
H 8.89493 4.30124 5.08734
H 10.1572 4.10803 6.21032
H 10.2564 5.29586 4.91443
C 15.329 9.06919 8.69788
O 0.148913 9.57104 9.52634
C 15.6326 9.10458 7.19122
H 15.6932 8.1144 6.78847
H 14.7585 9.64348 6.70853
H 0.630684 9.60695 6.87503
C 13.9973 8.45114 9.03412
H 13.5891 8.96164 9.90392
H 13.2696 8.51633 8.23028
H 14.0691 7.39408 9.37668
C 13.6103 12.6185 1.84282
O 12.7219 13.4552 1.73613
C 15.0446 12.8077 1.32902
H 15.743 12.2992 2.0012
H 15.2236 12.4109 0.313098
H 15.2338 13.9021 1.362
C 13.3255 11.256 2.52447
H 13.5286 10.5002 1.74842
H 13.9867 10.9986 3.40676
H 12.342 11.1336 2.78873
C 2.70258 7.52378 5.82984
O 2.91636 8.06302 4.74014
C 3.35012 8.10099 7.10734
H 2.65944 8.77994 7.65335
H 3.7213 7.2773 7.7285
H 4.09579 8.82161 6.7232
C 1.89132 6.27631 5.8109
H 1.10235 6.33725 6.50902
H 1.50894 6.00632 4.8059
H 2.51615 5.53928 6.24552
C 1.2381 4.34805 9.32962
O 0.531732 3.90322 10.2681
C 1.36049 3.52458 8.08271
H 0.814712 2.55155 8.19122
H 1.03467 4.02702 7.16148
H 2.35178 3.30396 7.8539
C 1.90077 5.69191 9.43292
H 2.95847 5.86098 9.05571
H 1.19909 6.31931 8.86965
H 1.65873 5.90538 10.4545
C 5.86822 11.2328 7.07646
O 5.47034 10.6864 6.03566
C 5.53743 12.6659 7.34149
H 4.97926 13.1717 6.60807
H 5.32461 12.8728 8.38612
H 6.55397 13.1897 7.25254
C 6.64273 10.5702 8.22354
H 6.79776 9.54768 7.90146
H 7.56075 11.1117 8.45238
H 6.06431 10.5449 9.14353
C 4.24894 8.90807 12.2545
O 3.24676 8.78217 12.9235
C 5.48598 9.29254 13.1115
H 5.03699 9.68593 14.0146
H 6.14015 8.42466 13.3264
H 6.10642 10.0505 12.5777
C 4.27324 8.77316 10.7939
H 5.17977 8.28052 10.5492
H 3.43562 8.16402 10.4715
H 4.25794 9.75006 10.2602
C 10.1476 12.2404 6.04109
O 9.2781 11.4302 5.95589
C 10.0142 13.5587 6.7385
H 9.90512 13.2336 7.76375
H 10.9802 14.0895 6.66311
H 9.14907 14.1749 6.42577
C 11.4103 11.8048 5.39777
H 12.0752 11.3133 6.0929
H 11.1248 11.0505 4.70183
H 11.8979 12.5856 4.85668
C 14.6594 7.84835 15.5185
O 14.4903 9.04735 15.248
C 0.0875571 7.27143 15.7101
H 0.41222 6.70865 14.8753
H 0.698172 8.19082 15.7415
H 0.183624 6.67298 0.635299
C 13.4977 6.8428 15.6615
H 12.5926 7.08518 15.1013
H 13.788 5.81388 15.5076
H 13.122 6.7829 0.803715
C 10.7975 3.43912 14.787
O 11.797 3.40898 15.437
C 9.44995 2.9074 15.2138
H 9.23655 3.20332 0.289361
H 8.59707 3.1994 14.5397
H 9.5552 1.82548 15.1625
C 10.7825 4.11958 13.3782
H 11.6424 4.81995 13.2326
H 10.6273 3.34245 12.6622
H 9.80732 4.68336 13.3642
C 2.51313 10.5461 2.13756
O 3.18578 10.8519 1.18807
C 1.20492 9.7726 1.99777
H 1.31416 8.72762 2.2819
H 0.525797 10.1672 2.75995
H 0.833401 9.83784 0.929105
C 2.92136 10.9423 3.53074
H 2.18951 10.7447 4.35031
H 3.80734 10.3397 3.7631
H 3.2149 12.0077 3.57759
C 15.3939 4.32942 1.93543
O 15.8525 5.21714 2.62836
C 14.0809 3.57635 2.08109
H 13.6329 3.65101 3.03808
H 13.3609 3.89455 1.36103
H 14.2959 2.59824 1.89566
C 0.180707 3.8106 0.707238
H 15.5792 3.97069 15.676
H 1.17843 4.28511 0.698951
H 0.205915 2.70957 0.813263
C 0.531413 12.6566 5.53337
O 0.504063 12.252 4.34805
C 1.66299 13.3166 6.2431
H 1.83969 12.8038 7.1444
H 2.56856 13.423 5.717
H 1.32191 14.3528 6.47084
C 15.2908 12.5131 6.42103
H 15.3901 11.9239 7.36341
H 15.1459 13.5092 6.89253
H 14.3323 12.3696 5.85307
C 8.62902 6.58176 15.6967
O 8.30763 5.91131 14.7583
C 7.65223 7.71213 0.0948797
H 8.22904 8.63926 0.407182
H 6.97528 7.85918 15.2316
H 7.09884 7.41702 0.989905
C 9.71998 6.37889 0.783547
H 10.3331 7.29567 0.77197
H 9.2589 6.41616 1.80394
H 10.3854 5.53062 0.608925
C 1.6021 2.3011 4.45939
O 0.464813 2.51355 4.03628
C 2.85514 2.93949 3.88233
H 2.96867 3.88247 4.5012
H 3.67008 2.2498 4.12836
H 2.7581 3.2595 2.80785
C 1.75279 1.20114 5.53397
H 2.40483 1.47281 6.39791
H 0.732237 0.985594 5.95206
H 2.22115 0.330078 5.09863
C 8.09461 13.4853 10.3873
O 9.04009 12.9264 9.78341
C 7.08408 14.3881 9.72051
H 7.12298 15.4419 10.0299
H 7.24486 14.3429 8.6687
H 6.064 14.1982 10.0233
C 7.94121 13.2856 11.9183
H 8.44256 14.1471 12.3537
H 6.96 13.3152 12.3594
H 8.50058 12.4017 12.165
C 5.34923 4.59379 6.87984
O 4.29522 4.72868 7.46284
C 6.08332 3.29753 6.8368
H 6.74872 3.27176 5.96719
H 6.70238 3.00824 7.73623
H 5.47035 2.3862 6.82177
C 5.89113 5.69678 6.02396
H 6.88902 5.44428 5.66577
H 5.3346 5.84024 5.04748
H 5.99425 6.73148 6.41781
415
Atoms. Timestep: 2000
O 10.8402 4.54951 9.92211
O 9.04918 4.67306 8.42622
N 10.3128 6.70347 6.98862
C 10.8779 6.27711 8.29542
C 10.6254 7.477 9.2308
C 9.82311 8.50524 8.46471
C 9.31724 7.71982 7.29185
C 10.1333 5.05044 8.8021
H 11.9274 6.02404 8.25735
H 11.5851 7.85962 9.4933
H 10.1618 7.16223 10.1651
H 8.9191 8.89554 8.88315
H 10.4456 9.36498 8.25507
H 8.40961 7.15867 7.49915
H 9.10929 8.30528 6.39942
H 11.0686 7.13664 6.46495
H 10.3071 3.82397 10.3078
C 13.0406 8.39357 4.18412
O 12.9693 8.38518 5.40719
C 14.3412 8.42919 3.37251
H 15.1207 8.77588 4.04349
H 14.6055 7.4375 3.09194
H 14.2422 9.05471 2.44121
C 11.6645 8.36154 3.50924
H 11.4932 9.36171 3.11233
H 11.6111 7.56883 2.73616
H 10.8978 8.29796 4.26242
C 11.3395 11.8207 14.859
C 10.0653 12.2847 14.8047
C 9.87637 13.5757 14.1869
C 11.0171 14.2926 13.7774
C 12.2981 13.7731 13.7819
C 12.4515 12.437 14.3319
H 9.30423 11.7842 15.3127
H 8.90042 13.9417 14.13
H 13.1654 14.3507 13.4767
H 13.4991 12.1523 14.3924
C 11.7119 10.6524 15.6845
O 10.8083 9.85546 0.126422
H 12.7707 10.4501 15.8676
N 10.6448 15.4969 12.9751
O 11.533 0.143629 12.3692
O 9.47327 15.863 13.0922
C 6.51842 1.05303 13.9801
C 6.4337 0.804185 15.3678
C 6.33187 1.76486 0.413787
C 6.23378 3.07835 15.9177
C 6.31521 3.42533 14.5493
C 6.46754 2.44561 13.5785
H 6.47201 15.722 15.8162
H 6.35819 1.4868 1.46362
H 6.23385 4.4328 14.2533
H 6.45802 2.71292 12.4958
C 6.59195 15.8927 13.0346
O 6.43296 0.121195 11.837
H 6.76959 14.9087 13.4057
N 6.093 4.22625 0.812194
O 6.0301 5.40221 0.345836
O 6.03325 3.96008 2.03441
C 14.9283 0.738719 14.2568
C 14.7904 1.86934 13.3729
C 15.1226 1.80337 12.0326
C 15.7283 0.573521 11.6412
C 0.00177754 15.4408 12.505
C 15.5779 15.5354 13.8379
H 14.1158 2.67129 13.6903
H 15.1078 2.63631 11.3447
H 0.374553 14.5678 11.9909
H 15.6906 14.6486 14.4512
C 14.1948 0.650211 15.4946
O 14.1858 15.6404 0.276646
H 13.5946 1.56582 15.6429
N 15.9463 0.443127 10.1608
O 15.1702 1.04819 9.39242
O 0.864684 15.5505 9.84063
C 7.22537 6.21627 10.5608
O 7.9154 7.13591 11.0433
C 6.99215 4.89948 11.2332
H 7.07702 4.06732 10.5227
H 7.73046 4.76671 12.0313
H 5.98645 4.94668 11.6923
C 6.53137 6.40198 9.21045
H 5.57782 5.9499 9.37352
H 6.31526 7.4876 9.00576
H 7.09811 6.13125 8.35379
C 5.96521 12.1778 15.5685
O 6.92061 12.5218 14.9089
C 5.87671 10.744 0.0119759
H 5.25705 10.5563 0.858796
H 5.41717 10.3315 15.0555
H 6.80726 10.2935 0.100651
C 4.87292 13.1115 0.134698
H 4.60765 13.8601 15.3078
H 4.02803 12.6497 0.555705
H 5.28514 13.7029 0.89756
C 13.3531 15.9173 4.99048
O 12.2078 15.5312 4.88274
C 13.8861 0.616342 6.20552
H 14.8926 0.330468 6.61536
H 13.9781 1.69955 5.98556
H 13.1951 0.443765 7.00359
C 14.1825 0.028212 3.77366
H 14.5317 1.02655 3.51243
H 15.2196 15.6391 3.95782
H 13.7105 15.427 2.9491
C 9.64338 14.8936 1.75204
O 8.48565 15.1563 1.5483
C 10.0676 13.6995 2.62971
H 10.7256 14.1839 3.40139
H 9.20575 13.1221 2.95875
H 10.6567 13.1015 1.94397
C 10.7883 15.6916 1.06453
H 10.5206 15.6933 0.0314279
H 10.8865 0.769263 1.43655
H 11.7921 15.1767 1.09707
C 13.9484 4.77776 7.09366
O 14.4955 5.66756 7.78075
C 13.5025 3.56359 7.78034
H 14.4433 3.17325 8.11328
H 12.7874 3.7415 8.57127
H 13.0129 2.83518 7.094
C 13.8802 4.73858 5.53502
H 14.8281 4.31107 5.16413
H 12.972 4.22239 5.19856
H 13.6792 5.74842 5.11839
C 4.52593 1.50409 9.98854
O 5.45604 2.26807 9.65392
C 4.40799 0.135971 9.36022
H 3.86006 0.134498 8.39806
H 5.34436 15.7155 8.87768
H 3.94723 15.2702 9.98398
C 3.41365 1.98227 10.9225
H 2.56877 1.32271 10.9997
H 3.72528 2.16941 11.9981
H 3.06799 2.99008 10.6509
C 3.32918 0.68366 1.43655
O 4.46806 0.427378 1.79703
C 2.87714 2.04215 0.896237
H 1.8331 2.19648 0.944508
H 3.51088 2.84643 1.29927
H 3.0674 2.04429 15.7377
C 2.16524 15.6528 1.77633
H 1.31159 15.6787 1.09685
H 2.46627 14.6228 2.09317
H 1.63478 0.0706833 2.6368
C 5.67731 15.5878 5.06632
O 5.3059 0.125075 6.13905
C 6.92938 0.108839 4.37815
H 7.40204 0.84963 5.08844
H 7.61618 15.2258 4.2625
H 6.70426 0.479907 3.38791
C 4.94309 14.35 4.519
H 3.88734 14.5213 4.61961
H 5.14746 14.1703 3.49315
H 5.36371 13.5163 5.07357
C 3.44703 6.57788 0.96022
O 2.90861 5.55107 0.600839
C 4.07989 6.56015 2.30342
H 5.0448 7.13453 2.29039
H 3.48594 7.1216 3.07065
H 4.20289 5.54177 2.71881
C 3.52713 7.79665 0.205885
H 2.97979 8.47384 0.818783
H 4.58591 8.2186 0.243007
H 3.13268 7.82835 15.1264
C 3.77351 12.0782 11.3336
O 4.70145 11.5511 10.7005
C 2.35594 11.7784 11.1105
H 1.7926 12.0634 11.9573
H 1.90692 12.2867 10.2592
H 2.08246 10.7337 10.8892
C 4.29756 13.0298 12.3333
H 5.12641 13.6484 11.9677
H 3.51287 13.7257 12.7483
H 4.52735 12.3975 13.2471
C 11.7507 9.55294 12.0673
O 12.8346 10.1349 11.9158
C 11.7023 8.21623 12.8612
H 11.6393 7.39061 12.1711
H 12.5698 8.12296 13.509
H 10.7999 8.18882 13.4716
C 10.4361 9.90875 11.4446
H 9.75228 8.99834 11.3004
H 9.95194 10.5164 12.1563
H 10.4891 10.439 10.5188
C 14.4395 6.26062 12.0739
O 14.4557 5.65475 13.1397
C 15.026 7.65299 11.9683
H 15.1063 8.09412 12.9735
H 0.0986523 7.59106 11.5718
H 14.3756 8.31185 11.4327
C 13.6871 5.77328 10.8486
H 14.2055 6.09247 9.95428
H 13.6536 4.6869 10.7532
H 12.654 6.26523 10.7765
C 7.81189 9.05821 3.37056
O 8.19021 7.89688 3.31203
C 8.57601 10.1721 2.6654
H 8.58395 11.1432 3.15326
H 9.54115 9.78144 2.35103
H 8.04875 10.3516 1.76499
C 6.49525 9.36696 4.0618
H 6.54493 10.3595 4.57072
H 5.6599 9.35985 3.39951
H 6.33561 8.50846 4.80881
C 13.4137 12.5999 9.94475
O 13.1659 11.9988 8.91286
C 12.5345 13.746 10.3922
H 11.6595 13.705 9.84506
H 12.2695 13.7859 11.4453
H 12.9008 14.6868 10.134
C 14.6118 12.359 10.8398
H 14.2992 11.9555 11.7847
H 15.2777 11.7409 10.2859
H 15.0442 13.2898 11.0792
C 0.458524 11.7759 14.1372
O 15.5243 12.5769 13.9458
C 1.73747 12.1508 14.8462
H 1.81239 11.8043 15.9234
H 2.60484 11.6827 14.4158
H 1.90724 13.2279 14.8716
C 0.265014 10.3583 13.5703
H 1.05913 9.68635 13.8558
H 15.2579 9.98451 13.9463
H 0.246936 10.3731 12.4895
C 2.83269 5.03011 13.3023
O 3.94755 5.15944 12.8553
C 2.37752 3.71925 13.8562
H 1.54777 3.23874 13.3603
H 3.19637 3.07969 13.653
H 2.16008 3.85626 14.9854
C 1.80579 6.17126 13.2875
H 2.01327 6.92701 12.4993
H 0.770198 5.68417 13.1248
H 1.77365 6.56378 14.31
C 9.42153 1.60817 9.04422
O 9.36902 1.97604 10.234
C 8.17284 1.39929 8.1774
H 7.30842 1.78084 8.72947
H 8.24296 1.92086 7.21628
H 8.02153 0.323241 8.01369
C 10.7037 1.00285 8.54348
H 10.801 15.8854 8.69946
H 10.9126 1.24174 7.51068
H 11.6009 1.37899 9.11404
C 10.2689 2.90393 4.59127
O 11.0733 2.39931 5.36783
C 9.86202 2.31849 3.29796
H 10.1852 1.32799 3.26305
H 8.86474 2.49514 2.98832
H 10.5212 2.71099 2.54205
C 9.71581 4.24502 4.96025
H 9.90723 4.38718 6.0293
H 10.3391 4.9834 4.4527
H 8.67574 4.51926 4.80132
C 15.7473 9.77782 8.14299
O 0.67669 9.86915 8.96981
C 15.9324 10.3131 6.67899
H 15.6268 11.3359 6.59479
H 1.05908 10.2344 6.38881
H 15.4295 9.75774 5.94574
C 14.3523 9.09803 8.46629
H 14.4838 8.25008 9.14271
H 13.7707 9.92533 8.95196
H 13.9489 8.7521 7.51307
C 13.9554 12.0268 2.6254
O 13.2932 11.0951 2.1927
C 14.9526 12.7136 1.70973
H 14.7035 12.441 0.697561
H 14.9367 13.8079 1.87153
H 0.0478596 12.3639 1.90648
C 13.8458 12.6041 4.05841
H 14.8323 12.8524 4.3618
H 13.2116 13.5484 4.10824
H 13.4366 11.7418 4.62903
C 2.78884 7.96513 5.99085
O 3.2595 8.32157 4.89451
C 3.59438 8.33229 7.23903
H 3.76891 7.49376 7.82797
H 4.606 8.65415 6.90051
H 2.98842 9.08656 7.84906
C 1.51864 7.07663 6.06201
H 0.693808 7.61105 6.52904
H 1.2249 6.82243 5.00965
H 1.56716 6.14493 6.70241
C 1.12752 4.61718 9.84224
O 0.614041 4.13806 10.8448
C 1.34174 3.73956 8.5989
H 1.10469 2.67644 8.90733
H 0.797531 4.17329 7.73186
H 2.36105 3.58096 8.28439
C 1.56918 6.05306 9.7321
H 2.41776 6.04892 9.09054
H 0.757364 6.59957 9.21957
H 1.81662 6.55263 10.7089
C 5.35567 11.828 7.6999
O 4.32591 11.6127 7.0904
C 5.82378 13.1913 8.15565
H 5.53292 13.997 7.40501
H 5.24097 13.4981 9.03424
H 6.85682 13.2407 8.41146
C 6.2825 10.701 8.05829
H 5.91913 9.76333 7.63377
H 7.31569 10.8896 7.70362
H 6.30414 10.6098 9.17561
C 4.56048 9.1467 12.3168
O 3.76327 9.55326 13.1897
C 6.01432 9.11725 12.5945
H 6.30449 10.0775 13.0476
H 6.0026 8.357 13.3479
H 6.63283 8.79628 11.8095
C 4.06285 8.67345 10.9908
H 4.46529 9.39597 10.2517
H 4.45842 7.71706 10.7204
H 2.99413 8.74035 10.9859
C 9.04806 12.5225 6.03989
O 8.20185 12.2679 5.1839
C 9.20526 13.7985 6.76389
H 8.97723 13.6392 7.80611
H 10.2417 14.0978 6.75916
H 8.66389 14.6535 6.35435
C 10.0432 11.4607 6.35331
H 11.0437 11.8451 6.03205
H 10.1519 11.1887 7.39697
H 9.82655 10.526 5.77314
C 14.124 7.87044 0.0911268
O 14.0296 9.0332 15.5678